<?xml version="1.0"?>
<VTKFile type="UnstructuredGrid" version="0.1">
<UnstructuredGrid>
<Piece NumberOfPoints="        18" NumberOfCells="        20">
<PointData>
<DataArray type="Float32" Name="p" NumberOfComponents="1" format="ascii">
  1.0000000E+00   6.0000000E-01   2.0000000E-01  -2.0000000E-01  -6.0000000E-01  -1.0000000E+00   1.0000000E+00   6.0000000E-01   2.0000000E-01  -2.0000000E-01  -6.0000000E-01  -1.0000000E+00   1.0000000E+00   6.0000000E-01   2.0000000E-01  -2.0000000E-01  -6.0000000E-01  -1.0000000E+00
</DataArray>
</PointData>
<CellData>
<DataArray type="Int32" Name="materiais" format="ascii">
  1   1   1   1   1   1   1   1   1   1   1   1   1   1   1   1   1   1   1   1
</DataArray>
</CellData>
<Points>
<DataArray type="Float32" NumberOfComponents="3" format="ascii">
  0.0000000E+00   0.0000000E+00   0.0000000E+00   1.0000000E+00   0.0000000E+00   0.0000000E+00   2.0000000E+00   0.0000000E+00   0.0000000E+00   3.0000000E+00   0.0000000E+00   0.0000000E+00   4.0000000E+00   0.0000000E+00   0.0000000E+00   5.0000000E+00   0.0000000E+00   0.0000000E+00   0.0000000E+00   1.0000000E+00   0.0000000E+00   1.0000000E+00   1.0000000E+00   0.0000000E+00   2.0000000E+00   1.0000000E+00   0.0000000E+00   3.0000000E+00   1.0000000E+00   0.0000000E+00   4.0000000E+00   1.0000000E+00   0.0000000E+00   5.0000000E+00   1.0000000E+00   0.0000000E+00   0.0000000E+00   2.0000000E+00   0.0000000E+00   1.0000000E+00   2.0000000E+00   0.0000000E+00   2.0000000E+00   2.0000000E+00   0.0000000E+00   3.0000000E+00   2.0000000E+00   0.0000000E+00   4.0000000E+00   2.0000000E+00   0.0000000E+00   5.0000000E+00   2.0000000E+00   0.0000000E+00
</DataArray>
</Points>
<Cells>
<DataArray type="Int32" Name="connectivity" format="ascii">
         0          1          7
         1          2          8
         2          3          9
         3          4         10
         4          5         11
         0          7          6
         1          8          7
         2          9          8
         3         10          9
         4         11         10
         6          7         13
         7          8         14
         8          9         15
         9         10         16
        10         11         17
         6         13         12
         7         14         13
         8         15         14
         9         16         15
        10         17         16
</DataArray>
<DataArray type="Int32" Name="offsets" format="ascii">
         3          6          9         12         15         18         21         24         27         30         33         36         39         42         45         48         51         54         57         60
</DataArray>
<DataArray type="Int32" Name="types" format="ascii">
         5          5          5          5          5          5          5          5          5          5          5          5          5          5          5          5          5          5          5          5
</DataArray>
</Cells>
</Piece>
</UnstructuredGrid>
</VTKFile>
