<?xml version="1.0"?>
<VTKFile type="UnstructuredGrid" version="0.1">
<UnstructuredGrid>
<Piece NumberOfPoints="        21" NumberOfCells="        12">
<PointData>
<DataArray type="Float32" Name="p" NumberOfComponents="1" format="ascii">
  2.2000000E+00   1.8000000E+00   1.4000000E+00   1.0000000E+00   6.0000001E-01   2.0000001E-01  -2.0000000E-01   2.2000000E+00   1.8000000E+00   1.4000000E+00   1.0000000E+00   6.0000001E-01   2.0000001E-01  -2.0000000E-01   2.2000000E+00   1.8000000E+00   1.4000000E+00   9.9999999E-01   6.0000000E-01   2.0000001E-01  -2.0000000E-01
</DataArray>
</PointData>
<CellData>
<DataArray type="Int32" Name="materiais" format="ascii">
  1   1   1   1   1   1   1   1   1   1   1   1
</DataArray>
</CellData>
<Points>
<DataArray type="Float32" NumberOfComponents="3" format="ascii">
  0.0000000E+00   0.0000000E+00   0.0000000E+00   1.0000000E+00   0.0000000E+00   0.0000000E+00   2.0000000E+00   0.0000000E+00   0.0000000E+00   3.0000000E+00   0.0000000E+00   0.0000000E+00   4.0000000E+00   0.0000000E+00   0.0000000E+00   5.0000000E+00   0.0000000E+00   0.0000000E+00   6.0000000E+00   0.0000000E+00   0.0000000E+00   0.0000000E+00   1.0000000E+00   0.0000000E+00   1.0000000E+00   1.0000000E+00   0.0000000E+00   2.0000000E+00   1.0000000E+00   0.0000000E+00   3.0000000E+00   1.0000000E+00   0.0000000E+00   4.0000000E+00   1.0000000E+00   0.0000000E+00   5.0000000E+00   1.0000000E+00   0.0000000E+00   6.0000000E+00   1.0000000E+00   0.0000000E+00   0.0000000E+00   2.0000000E+00   0.0000000E+00   1.0000000E+00   2.0000000E+00   0.0000000E+00   2.0000000E+00   2.0000000E+00   0.0000000E+00   3.0000000E+00   2.0000000E+00   0.0000000E+00   4.0000000E+00   2.0000000E+00   0.0000000E+00   5.0000000E+00   2.0000000E+00   0.0000000E+00   6.0000000E+00   2.0000000E+00   0.0000000E+00
</DataArray>
</Points>
<Cells>
<DataArray type="Int32" Name="connectivity" format="ascii">
         0          1          8          7
         1          2          9          8
         2          3         10          9
         3          4         11         10
         4          5         12         11
         5          6         13         12
         7          8         15         14
         8          9         16         15
         9         10         17         16
        10         11         18         17
        11         12         19         18
        12         13         20         19
</DataArray>
<DataArray type="Int32" Name="offsets" format="ascii">
         4          8         12         16         20         24         28         32         36         40         44         48
</DataArray>
<DataArray type="Int32" Name="types" format="ascii">
         9          9          9          9          9          9          9          9          9          9          9          9
</DataArray>
</Cells>
</Piece>
</UnstructuredGrid>
</VTKFile>
