<?xml version="1.0"?>
<VTKFile type="UnstructuredGrid" version="0.1">
<UnstructuredGrid>
<Piece NumberOfPoints="        18" NumberOfCells="        10">
<PointData>
<DataArray type="Float32" Name="p" NumberOfComponents="1" format="ascii">
  1.0000000E+00   1.0000000E+00   1.0000000E+00   6.0000000E-01   6.0000000E-01   6.0000000E-01   2.0000000E-01   2.0000000E-01   2.0000000E-01  -2.0000000E-01  -2.0000000E-01  -2.0000000E-01  -6.0000000E-01  -6.0000000E-01  -6.0000000E-01  -1.0000000E+00  -1.0000000E+00  -1.0000000E+00
</DataArray>
</PointData>
<CellData>
<DataArray type="Int32" Name="materiais" format="ascii">
  1   1   1   1   1   1   1   1   1   1
</DataArray>
</CellData>
<Points>
<DataArray type="Float32" NumberOfComponents="3" format="ascii">
  0.0000000E+00   0.0000000E+00   0.0000000E+00   1.0000000E+00   0.0000000E+00   0.0000000E+00   2.0000000E+00   0.0000000E+00   0.0000000E+00   0.0000000E+00   1.0000000E+00   0.0000000E+00   1.0000000E+00   1.0000000E+00   0.0000000E+00   2.0000000E+00   1.0000000E+00   0.0000000E+00   0.0000000E+00   2.0000000E+00   0.0000000E+00   1.0000000E+00   2.0000000E+00   0.0000000E+00   2.0000000E+00   2.0000000E+00   0.0000000E+00   0.0000000E+00   3.0000000E+00   0.0000000E+00   1.0000000E+00   3.0000000E+00   0.0000000E+00   2.0000000E+00   3.0000000E+00   0.0000000E+00   0.0000000E+00   4.0000000E+00   0.0000000E+00   1.0000000E+00   4.0000000E+00   0.0000000E+00   2.0000000E+00   4.0000000E+00   0.0000000E+00   0.0000000E+00   5.0000000E+00   0.0000000E+00   1.0000000E+00   5.0000000E+00   0.0000000E+00   2.0000000E+00   5.0000000E+00   0.0000000E+00
</DataArray>
</Points>
<Cells>
<DataArray type="Int32" Name="connectivity" format="ascii">
         0          1          4          3
         1          2          5          4
         3          4          7          6
         4          5          8          7
         6          7         10          9
         7          8         11         10
         9         10         13         12
        10         11         14         13
        12         13         16         15
        13         14         17         16
</DataArray>
<DataArray type="Int32" Name="offsets" format="ascii">
         4          8         12         16         20         24         28         32         36         40
</DataArray>
<DataArray type="Int32" Name="types" format="ascii">
         9          9          9          9          9          9          9          9          9          9
</DataArray>
</Cells>
</Piece>
</UnstructuredGrid>
</VTKFile>
