<?xml version="1.0"?>
<VTKFile type="UnstructuredGrid" version="0.1">
<UnstructuredGrid>
<Piece NumberOfPoints="        22" NumberOfCells="        10">
<PointData>
<DataArray type="Float32" Name="p" NumberOfComponents="1" format="ascii">
  1.0000000E+00   8.0000000E-01   6.0000000E-01   4.0000000E-01   2.0000000E-01   8.3266727E-17  -2.0000000E-01  -4.0000000E-01  -6.0000000E-01  -8.0000000E-01  -1.0000000E+00   1.0000000E+00   8.0000000E-01   6.0000000E-01   4.0000000E-01   2.0000000E-01   5.5511151E-17  -2.0000000E-01  -4.0000000E-01  -6.0000000E-01  -8.0000000E-01  -1.0000000E+00
</DataArray>
</PointData>
<CellData>
<DataArray type="Int32" Name="materiais" format="ascii">
  1   1   1   1   1   1   1   1   1   1
</DataArray>
</CellData>
<Points>
<DataArray type="Float32" NumberOfComponents="3" format="ascii">
  0.0000000E+00   0.0000000E+00   0.0000000E+00   1.0000000E-01   0.0000000E+00   0.0000000E+00   2.0000000E-01   0.0000000E+00   0.0000000E+00   3.0000000E-01   0.0000000E+00   0.0000000E+00   4.0000000E-01   0.0000000E+00   0.0000000E+00   5.0000000E-01   0.0000000E+00   0.0000000E+00   6.0000000E-01   0.0000000E+00   0.0000000E+00   7.0000000E-01   0.0000000E+00   0.0000000E+00   8.0000000E-01   0.0000000E+00   0.0000000E+00   9.0000000E-01   0.0000000E+00   0.0000000E+00   1.0000000E+00   0.0000000E+00   0.0000000E+00   0.0000000E+00   1.0000000E+00   0.0000000E+00   1.0000000E-01   1.0000000E+00   0.0000000E+00   2.0000000E-01   1.0000000E+00   0.0000000E+00   3.0000000E-01   1.0000000E+00   0.0000000E+00   4.0000000E-01   1.0000000E+00   0.0000000E+00   5.0000000E-01   1.0000000E+00   0.0000000E+00   6.0000000E-01   1.0000000E+00   0.0000000E+00   7.0000000E-01   1.0000000E+00   0.0000000E+00   8.0000000E-01   1.0000000E+00   0.0000000E+00   9.0000000E-01   1.0000000E+00   0.0000000E+00   1.0000000E+00   1.0000000E+00   0.0000000E+00
</DataArray>
</Points>
<Cells>
<DataArray type="Int32" Name="connectivity" format="ascii">
         0          1         12         11
         1          2         13         12
         2          3         14         13
         3          4         15         14
         4          5         16         15
         5          6         17         16
         6          7         18         17
         7          8         19         18
         8          9         20         19
         9         10         21         20
</DataArray>
<DataArray type="Int32" Name="offsets" format="ascii">
         4          8         12         16         20         24         28         32         36         40
</DataArray>
<DataArray type="Int32" Name="types" format="ascii">
         9          9          9          9          9          9          9          9          9          9
</DataArray>
</Cells>
</Piece>
</UnstructuredGrid>
</VTKFile>
